<?xml version="1.0" encoding="UTF-8"?>

<!-- generated on 2025-05-30 12:59:46 by Eclipse SUMO sumo Version 1.20.0
<configuration xmlns:xsi="http://www.w3.org/2001/XMLSchema-instance" xsi:noNamespaceSchemaLocation="http://sumo.dlr.de/xsd/sumoConfiguration.xsd">

    <input>
        <net-file value="data/3_3_intersections.net.xml"/>
        <route-files value="data/3_3_intersections_9999.rou.xml"/>
        <additional-files value="data/3_3_intersections_9999.add.xml"/>
    </input>

    <time>
        <begin value="0"/>
    </time>

    <report>
        <verbose value="false"/>
        <no-warnings value="true"/>
        <no-step-log value="true"/>
    </report>

    <traci_server>
        <remote-port value="9812"/>
    </traci_server>

</configuration>
-->

<detector xmlns:xsi="http://www.w3.org/2001/XMLSchema-instance" xsi:noNamespaceSchemaLocation="http://sumo.dlr.de/xsd/det_e2_file.xsd">
   <interval begin="0.00" end="1251.00" id="DET+++eastBottom___intersectionSE" sampledSeconds="2996.30" nVehEntered="59" nVehLeft="59" nVehSeen="59" meanSpeed="3.05" meanTimeLoss="39.47" meanOccupancy="7.78" maxOccupancy="23.33" meanMaxJamLengthInVehicles="1.35" meanMaxJamLengthInMeters="9.12" maxJamLengthInVehicles="7" maxJamLengthInMeters="50.19" jamLengthInVehiclesSum="1708" jamLengthInMetersSum="11490.07" meanHaltingDuration="10.54" maxHaltingDuration="30.00" haltingDurationSum="1887.00" meanIntervalHaltingDuration="10.54" maxIntervalHaltingDuration="30.00" intervalHaltingDurationSum="1887.00" startedHalts="179.00" meanVehicleNumber="2.44" maxVehicleNumber="7" />
   <interval begin="0.00" end="1251.00" id="DET+++eastMiddle___intersectionE" sampledSeconds="1301.66" nVehEntered="53" nVehLeft="53" nVehSeen="53" meanSpeed="6.31" meanTimeLoss="13.26" meanOccupancy="3.30" maxOccupancy="16.67" meanMaxJamLengthInVehicles="0.35" meanMaxJamLengthInMeters="2.02" maxJamLengthInVehicles="5" maxJamLengthInMeters="35.53" jamLengthInVehiclesSum="440" jamLengthInMetersSum="2524.42" meanHaltingDuration="8.21" maxHaltingDuration="23.00" haltingDurationSum="501.00" meanIntervalHaltingDuration="8.21" maxIntervalHaltingDuration="23.00" intervalHaltingDurationSum="501.00" startedHalts="62.00" meanVehicleNumber="1.09" maxVehicleNumber="5" />
   <interval begin="0.00" end="1251.00" id="DET+++eastTop___intersectionNE" sampledSeconds="3485.99" nVehEntered="66" nVehLeft="66" nVehSeen="66" meanSpeed="2.93" meanTimeLoss="41.65" meanOccupancy="9.05" maxOccupancy="26.67" meanMaxJamLengthInVehicles="1.63" meanMaxJamLengthInMeters="10.83" maxJamLengthInVehicles="7" maxJamLengthInMeters="51.29" jamLengthInVehiclesSum="2069" jamLengthInMetersSum="13704.74" meanHaltingDuration="11.40" maxHaltingDuration="25.00" haltingDurationSum="2268.00" meanIntervalHaltingDuration="11.40" maxIntervalHaltingDuration="25.00" intervalHaltingDurationSum="2268.00" startedHalts="201.00" meanVehicleNumber="2.84" maxVehicleNumber="8" />
   <interval begin="0.00" end="1251.00" id="DET+++intersectionCenter___intersectionE" sampledSeconds="3778.31" nVehEntered="66" nVehLeft="50" nVehSeen="66" meanSpeed="2.43" meanTimeLoss="47.12" meanOccupancy="9.90" maxOccupancy="53.33" meanMaxJamLengthInVehicles="1.65" meanMaxJamLengthInMeters="11.63" maxJamLengthInVehicles="13" maxJamLengthInMeters="95.46" jamLengthInVehiclesSum="2360" jamLengthInMetersSum="16521.15" meanHaltingDuration="11.26" maxHaltingDuration="34.00" haltingDurationSum="2590.00" meanIntervalHaltingDuration="11.26" maxIntervalHaltingDuration="34.00" intervalHaltingDurationSum="2590.00" startedHalts="232.00" meanVehicleNumber="3.07" maxVehicleNumber="16" />
   <interval begin="0.00" end="1251.00" id="DET+++intersectionCenter___intersectionN" sampledSeconds="9434.23" nVehEntered="58" nVehLeft="58" nVehSeen="58" meanSpeed="0.95" meanTimeLoss="151.45" meanOccupancy="24.85" maxOccupancy="66.67" meanMaxJamLengthInVehicles="4.66" meanMaxJamLengthInMeters="34.29" maxJamLengthInVehicles="20" maxJamLengthInMeters="150.00" jamLengthInVehiclesSum="7055" jamLengthInMetersSum="51460.40" meanHaltingDuration="13.57" maxHaltingDuration="51.00" haltingDurationSum="7616.00" meanIntervalHaltingDuration="13.57" maxIntervalHaltingDuration="51.00" intervalHaltingDurationSum="7616.00" startedHalts="562.00" meanVehicleNumber="7.59" maxVehicleNumber="20" />
   <interval begin="0.00" end="1251.00" id="DET+++intersectionCenter___intersectionS" sampledSeconds="1827.84" nVehEntered="62" nVehLeft="60" nVehSeen="62" meanSpeed="5.24" meanTimeLoss="18.42" meanOccupancy="4.66" maxOccupancy="16.67" meanMaxJamLengthInVehicles="0.63" meanMaxJamLengthInMeters="3.89" maxJamLengthInVehicles="5" maxJamLengthInMeters="35.14" jamLengthInVehiclesSum="782" jamLengthInMetersSum="4868.94" meanHaltingDuration="9.38" maxHaltingDuration="26.00" haltingDurationSum="872.00" meanIntervalHaltingDuration="9.38" maxIntervalHaltingDuration="26.00" intervalHaltingDurationSum="872.00" startedHalts="97.00" meanVehicleNumber="1.51" maxVehicleNumber="5" />
   <interval begin="0.00" end="1251.00" id="DET+++intersectionCenter___intersectionW" sampledSeconds="1620.30" nVehEntered="52" nVehLeft="52" nVehSeen="52" meanSpeed="4.97" meanTimeLoss="19.88" meanOccupancy="4.13" maxOccupancy="15.96" meanMaxJamLengthInVehicles="0.61" meanMaxJamLengthInMeters="3.56" maxJamLengthInVehicles="4" maxJamLengthInMeters="27.87" jamLengthInVehiclesSum="761" jamLengthInMetersSum="4453.20" meanHaltingDuration="11.96" maxHaltingDuration="53.00" haltingDurationSum="825.00" meanIntervalHaltingDuration="11.96" maxIntervalHaltingDuration="53.00" intervalHaltingDurationSum="825.00" startedHalts="73.00" meanVehicleNumber="1.33" maxVehicleNumber="5" />
   <interval begin="0.00" end="1251.00" id="DET+++intersectionE___intersectionCenter" sampledSeconds="3249.04" nVehEntered="62" nVehLeft="61" nVehSeen="62" meanSpeed="2.96" meanTimeLoss="41.09" meanOccupancy="8.46" maxOccupancy="39.72" meanMaxJamLengthInVehicles="1.34" meanMaxJamLengthInMeters="9.18" maxJamLengthInVehicles="10" maxJamLengthInMeters="73.82" jamLengthInVehiclesSum="1772" jamLengthInMetersSum="12042.26" meanHaltingDuration="9.77" maxHaltingDuration="30.00" haltingDurationSum="1974.00" meanIntervalHaltingDuration="9.77" maxIntervalHaltingDuration="30.00" intervalHaltingDurationSum="1974.00" startedHalts="203.00" meanVehicleNumber="2.64" maxVehicleNumber="12" />
   <interval begin="0.00" end="1251.00" id="DET+++intersectionE___intersectionNE" sampledSeconds="1398.89" nVehEntered="54" nVehLeft="53" nVehSeen="54" meanSpeed="5.96" meanTimeLoss="14.70" meanOccupancy="3.55" maxOccupancy="13.33" meanMaxJamLengthInVehicles="0.43" meanMaxJamLengthInMeters="2.46" maxJamLengthInVehicles="3" maxJamLengthInMeters="21.01" jamLengthInVehiclesSum="542" jamLengthInMetersSum="3083.58" meanHaltingDuration="10.03" maxHaltingDuration="30.00" haltingDurationSum="602.00" meanIntervalHaltingDuration="10.03" maxIntervalHaltingDuration="30.00" intervalHaltingDurationSum="602.00" startedHalts="61.00" meanVehicleNumber="1.16" maxVehicleNumber="4" />
   <interval begin="0.00" end="1251.00" id="DET+++intersectionE___intersectionSE" sampledSeconds="4775.92" nVehEntered="64" nVehLeft="57" nVehSeen="64" meanSpeed="2.02" meanTimeLoss="63.61" meanOccupancy="12.50" maxOccupancy="40.00" meanMaxJamLengthInVehicles="2.36" meanMaxJamLengthInMeters="16.69" maxJamLengthInVehicles="12" maxJamLengthInMeters="89.00" jamLengthInVehiclesSum="3178" jamLengthInMetersSum="22300.16" meanHaltingDuration="12.28" maxHaltingDuration="39.00" haltingDurationSum="3451.00" meanIntervalHaltingDuration="12.28" maxIntervalHaltingDuration="39.00" intervalHaltingDurationSum="3451.00" startedHalts="284.00" meanVehicleNumber="3.86" maxVehicleNumber="12" />
   <interval begin="0.00" end="1251.00" id="DET+++intersectionNE___intersectionE" sampledSeconds="3952.64" nVehEntered="75" nVehLeft="74" nVehSeen="75" meanSpeed="2.90" meanTimeLoss="41.55" meanOccupancy="10.28" maxOccupancy="36.67" meanMaxJamLengthInVehicles="1.82" meanMaxJamLengthInMeters="12.44" maxJamLengthInVehicles="11" maxJamLengthInMeters="80.15" jamLengthInVehiclesSum="2386" jamLengthInMetersSum="16261.70" meanHaltingDuration="11.60" maxHaltingDuration="39.00" haltingDurationSum="2611.00" meanIntervalHaltingDuration="11.60" maxIntervalHaltingDuration="39.00" intervalHaltingDurationSum="2611.00" startedHalts="226.00" meanVehicleNumber="3.22" maxVehicleNumber="11" />
   <interval begin="0.00" end="1251.00" id="DET+++intersectionNE___intersectionN" sampledSeconds="3335.25" nVehEntered="63" nVehLeft="63" nVehSeen="63" meanSpeed="2.93" meanTimeLoss="41.95" meanOccupancy="8.67" maxOccupancy="30.00" meanMaxJamLengthInVehicles="1.59" meanMaxJamLengthInMeters="10.87" maxJamLengthInVehicles="8" maxJamLengthInMeters="62.09" jamLengthInVehiclesSum="2005" jamLengthInMetersSum="13665.74" meanHaltingDuration="13.06" maxHaltingDuration="38.00" haltingDurationSum="2168.00" meanIntervalHaltingDuration="13.06" maxIntervalHaltingDuration="38.00" intervalHaltingDurationSum="2168.00" startedHalts="169.00" meanVehicleNumber="2.72" maxVehicleNumber="9" />
   <interval begin="0.00" end="1251.00" id="DET+++intersectionNW___intersectionN" sampledSeconds="9659.65" nVehEntered="81" nVehLeft="75" nVehSeen="81" meanSpeed="1.28" meanTimeLoss="108.06" meanOccupancy="25.46" maxOccupancy="65.81" meanMaxJamLengthInVehicles="4.52" meanMaxJamLengthInMeters="32.92" maxJamLengthInVehicles="19" maxJamLengthInMeters="143.68" jamLengthInVehiclesSum="6672" jamLengthInMetersSum="48118.16" meanHaltingDuration="11.34" maxHaltingDuration="33.00" haltingDurationSum="7317.00" meanIntervalHaltingDuration="11.34" maxIntervalHaltingDuration="33.00" intervalHaltingDurationSum="7317.00" startedHalts="646.00" meanVehicleNumber="7.79" maxVehicleNumber="20" />
   <interval begin="0.00" end="1251.00" id="DET+++intersectionNW___intersectionW" sampledSeconds="6487.77" nVehEntered="70" nVehLeft="70" nVehSeen="70" meanSpeed="1.67" meanTimeLoss="81.45" meanOccupancy="17.03" maxOccupancy="58.08" meanMaxJamLengthInVehicles="2.86" meanMaxJamLengthInMeters="20.61" maxJamLengthInVehicles="17" maxJamLengthInMeters="126.98" jamLengthInVehiclesSum="4354" jamLengthInMetersSum="31162.54" meanHaltingDuration="10.53" maxHaltingDuration="27.00" haltingDurationSum="4811.00" meanIntervalHaltingDuration="10.53" maxIntervalHaltingDuration="27.00" intervalHaltingDurationSum="4811.00" startedHalts="461.00" meanVehicleNumber="5.24" maxVehicleNumber="18" />
   <interval begin="0.00" end="1251.00" id="DET+++intersectionN___intersectionCenter" sampledSeconds="3808.67" nVehEntered="65" nVehLeft="65" nVehSeen="65" meanSpeed="2.65" meanTimeLoss="47.44" meanOccupancy="9.94" maxOccupancy="40.00" meanMaxJamLengthInVehicles="1.69" meanMaxJamLengthInMeters="11.87" maxJamLengthInVehicles="12" maxJamLengthInMeters="87.65" jamLengthInVehiclesSum="2291" jamLengthInMetersSum="15925.93" meanHaltingDuration="10.51" maxHaltingDuration="30.00" haltingDurationSum="2532.00" meanIntervalHaltingDuration="10.51" maxIntervalHaltingDuration="30.00" intervalHaltingDurationSum="2532.00" startedHalts="243.00" meanVehicleNumber="3.10" maxVehicleNumber="12" />
   <interval begin="0.00" end="1251.00" id="DET+++intersectionN___intersectionNE" sampledSeconds="3185.46" nVehEntered="64" nVehLeft="62" nVehSeen="64" meanSpeed="3.11" meanTimeLoss="38.44" meanOccupancy="8.26" maxOccupancy="33.33" meanMaxJamLengthInVehicles="1.42" meanMaxJamLengthInMeters="9.74" maxJamLengthInVehicles="9" maxJamLengthInMeters="66.62" jamLengthInVehiclesSum="1862" jamLengthInMetersSum="12669.34" meanHaltingDuration="10.58" maxHaltingDuration="27.00" haltingDurationSum="2052.00" meanIntervalHaltingDuration="10.58" maxIntervalHaltingDuration="27.00" intervalHaltingDurationSum="2052.00" startedHalts="198.00" meanVehicleNumber="2.60" maxVehicleNumber="10" />
   <interval begin="0.00" end="1251.00" id="DET+++intersectionN___intersectionNW" sampledSeconds="3670.33" nVehEntered="72" nVehLeft="72" nVehSeen="72" meanSpeed="3.04" meanTimeLoss="39.90" meanOccupancy="9.54" maxOccupancy="36.67" meanMaxJamLengthInVehicles="1.52" meanMaxJamLengthInMeters="10.58" maxJamLengthInVehicles="11" maxJamLengthInMeters="82.25" jamLengthInVehiclesSum="2075" jamLengthInMetersSum="14364.70" meanHaltingDuration="9.43" maxHaltingDuration="33.00" haltingDurationSum="2321.00" meanIntervalHaltingDuration="9.43" maxIntervalHaltingDuration="33.00" intervalHaltingDurationSum="2321.00" startedHalts="246.00" meanVehicleNumber="2.99" maxVehicleNumber="11" />
   <interval begin="0.00" end="1251.00" id="DET+++intersectionSE___intersectionE" sampledSeconds="4138.38" nVehEntered="54" nVehLeft="54" nVehSeen="54" meanSpeed="2.02" meanTimeLoss="65.34" meanOccupancy="10.84" maxOccupancy="50.00" meanMaxJamLengthInVehicles="1.82" meanMaxJamLengthInMeters="12.94" maxJamLengthInVehicles="12" maxJamLengthInMeters="91.58" jamLengthInVehiclesSum="2622" jamLengthInMetersSum="18474.03" meanHaltingDuration="10.59" maxHaltingDuration="30.00" haltingDurationSum="2892.00" meanIntervalHaltingDuration="10.59" maxIntervalHaltingDuration="30.00" intervalHaltingDurationSum="2892.00" startedHalts="276.00" meanVehicleNumber="3.35" maxVehicleNumber="16" />
   <interval begin="0.00" end="1251.00" id="DET+++intersectionSE___intersectionS" sampledSeconds="6492.21" nVehEntered="76" nVehLeft="73" nVehSeen="76" meanSpeed="1.81" meanTimeLoss="74.05" meanOccupancy="17.04" maxOccupancy="61.18" meanMaxJamLengthInVehicles="2.86" meanMaxJamLengthInMeters="20.38" maxJamLengthInVehicles="15" maxJamLengthInMeters="114.66" jamLengthInVehiclesSum="4228" jamLengthInMetersSum="29914.46" meanHaltingDuration="10.17" maxHaltingDuration="30.00" haltingDurationSum="4689.00" meanIntervalHaltingDuration="10.17" maxIntervalHaltingDuration="30.00" intervalHaltingDurationSum="4689.00" startedHalts="461.00" meanVehicleNumber="5.24" maxVehicleNumber="19" />
   <interval begin="0.00" end="1251.00" id="DET+++intersectionSW___intersectionS" sampledSeconds="5648.65" nVehEntered="53" nVehLeft="53" nVehSeen="53" meanSpeed="1.45" meanTimeLoss="95.21" meanOccupancy="14.87" maxOccupancy="53.33" meanMaxJamLengthInVehicles="2.73" meanMaxJamLengthInMeters="19.75" maxJamLengthInVehicles="14" maxJamLengthInMeters="104.75" jamLengthInVehiclesSum="3980" jamLengthInMetersSum="28554.57" meanHaltingDuration="11.90" maxHaltingDuration="29.00" haltingDurationSum="4345.00" meanIntervalHaltingDuration="11.90" maxIntervalHaltingDuration="29.00" intervalHaltingDurationSum="4345.00" startedHalts="365.00" meanVehicleNumber="4.56" maxVehicleNumber="16" />
   <interval begin="0.00" end="1251.00" id="DET+++intersectionSW___intersectionW" sampledSeconds="4897.33" nVehEntered="72" nVehLeft="72" nVehSeen="72" meanSpeed="2.28" meanTimeLoss="56.75" meanOccupancy="12.83" maxOccupancy="60.00" meanMaxJamLengthInVehicles="1.86" meanMaxJamLengthInMeters="13.31" maxJamLengthInVehicles="15" maxJamLengthInMeters="114.00" jamLengthInVehiclesSum="2839" jamLengthInMetersSum="20160.34" meanHaltingDuration="9.18" maxHaltingDuration="31.00" haltingDurationSum="3186.00" meanIntervalHaltingDuration="9.18" maxIntervalHaltingDuration="31.00" intervalHaltingDurationSum="3186.00" startedHalts="350.00" meanVehicleNumber="3.97" maxVehicleNumber="18" />
   <interval begin="0.00" end="1251.00" id="DET+++intersectionS___intersectionCenter" sampledSeconds="2398.15" nVehEntered="51" nVehLeft="50" nVehSeen="51" meanSpeed="3.26" meanTimeLoss="35.93" meanOccupancy="6.22" maxOccupancy="23.33" meanMaxJamLengthInVehicles="1.13" meanMaxJamLengthInMeters="7.55" maxJamLengthInVehicles="7" maxJamLengthInMeters="50.58" jamLengthInVehiclesSum="1424" jamLengthInMetersSum="9510.11" meanHaltingDuration="12.87" maxHaltingDuration="57.00" haltingDurationSum="1544.00" meanIntervalHaltingDuration="12.87" maxIntervalHaltingDuration="57.00" intervalHaltingDurationSum="1544.00" startedHalts="121.00" meanVehicleNumber="1.96" maxVehicleNumber="8" />
   <interval begin="0.00" end="1251.00" id="DET+++intersectionS___intersectionSE" sampledSeconds="1583.43" nVehEntered="48" nVehLeft="48" nVehSeen="48" meanSpeed="4.70" meanTimeLoss="21.77" meanOccupancy="4.06" maxOccupancy="18.86" meanMaxJamLengthInVehicles="0.60" meanMaxJamLengthInMeters="3.78" maxJamLengthInVehicles="4" maxJamLengthInMeters="28.62" jamLengthInVehiclesSum="756" jamLengthInMetersSum="4722.69" meanHaltingDuration="10.69" maxHaltingDuration="44.00" haltingDurationSum="834.00" meanIntervalHaltingDuration="10.69" maxIntervalHaltingDuration="44.00" intervalHaltingDurationSum="834.00" startedHalts="81.00" meanVehicleNumber="1.30" maxVehicleNumber="6" />
   <interval begin="0.00" end="1251.00" id="DET+++intersectionS___intersectionSW" sampledSeconds="6953.41" nVehEntered="86" nVehLeft="72" nVehSeen="86" meanSpeed="1.80" meanTimeLoss="70.18" meanOccupancy="18.28" maxOccupancy="50.00" meanMaxJamLengthInVehicles="3.19" meanMaxJamLengthInMeters="22.94" maxJamLengthInVehicles="14" maxJamLengthInMeters="103.66" jamLengthInVehiclesSum="4630" jamLengthInMetersSum="33022.41" meanHaltingDuration="11.02" maxHaltingDuration="36.00" haltingDurationSum="5092.00" meanIntervalHaltingDuration="11.02" maxIntervalHaltingDuration="36.00" intervalHaltingDurationSum="5092.00" startedHalts="464.00" meanVehicleNumber="5.62" maxVehicleNumber="15" />
   <interval begin="0.00" end="1251.00" id="DET+++intersectionW___intersectionCenter" sampledSeconds="5132.75" nVehEntered="84" nVehLeft="66" nVehSeen="84" meanSpeed="2.27" meanTimeLoss="51.01" meanOccupancy="13.45" maxOccupancy="61.17" meanMaxJamLengthInVehicles="2.24" meanMaxJamLengthInMeters="15.86" maxJamLengthInVehicles="14" maxJamLengthInMeters="106.07" jamLengthInVehiclesSum="3251" jamLengthInMetersSum="22907.36" meanHaltingDuration="10.34" maxHaltingDuration="32.00" haltingDurationSum="3599.00" meanIntervalHaltingDuration="10.34" maxIntervalHaltingDuration="32.00" intervalHaltingDurationSum="3599.00" startedHalts="352.00" meanVehicleNumber="4.16" maxVehicleNumber="19" />
   <interval begin="0.00" end="1251.00" id="DET+++intersectionW___intersectionNW" sampledSeconds="1451.25" nVehEntered="57" nVehLeft="54" nVehSeen="57" meanSpeed="5.93" meanTimeLoss="14.45" meanOccupancy="3.69" maxOccupancy="16.67" meanMaxJamLengthInVehicles="0.45" meanMaxJamLengthInMeters="2.69" maxJamLengthInVehicles="5" maxJamLengthInMeters="35.11" jamLengthInVehiclesSum="560" jamLengthInMetersSum="3376.00" meanHaltingDuration="9.62" maxHaltingDuration="35.00" haltingDurationSum="625.00" meanIntervalHaltingDuration="9.62" maxIntervalHaltingDuration="35.00" intervalHaltingDurationSum="625.00" startedHalts="67.00" meanVehicleNumber="1.20" maxVehicleNumber="5" />
   <interval begin="0.00" end="1251.00" id="DET+++intersectionW___intersectionSW" sampledSeconds="3713.42" nVehEntered="60" nVehLeft="60" nVehSeen="60" meanSpeed="2.50" meanTimeLoss="50.66" meanOccupancy="9.68" maxOccupancy="33.33" meanMaxJamLengthInVehicles="1.68" meanMaxJamLengthInMeters="11.70" maxJamLengthInVehicles="10" maxJamLengthInMeters="73.69" jamLengthInVehiclesSum="2213" jamLengthInMetersSum="15267.32" meanHaltingDuration="9.89" maxHaltingDuration="27.00" haltingDurationSum="2462.00" meanIntervalHaltingDuration="9.89" maxIntervalHaltingDuration="27.00" intervalHaltingDurationSum="2462.00" startedHalts="252.00" meanVehicleNumber="3.02" maxVehicleNumber="10" />
   <interval begin="0.00" end="1251.00" id="DET+++northLeft___intersectionNW" sampledSeconds="2898.73" nVehEntered="68" nVehLeft="68" nVehSeen="68" meanSpeed="3.64" meanTimeLoss="31.19" meanOccupancy="7.49" maxOccupancy="23.33" meanMaxJamLengthInVehicles="1.22" meanMaxJamLengthInMeters="7.92" maxJamLengthInVehicles="6" maxJamLengthInMeters="43.63" jamLengthInVehiclesSum="1537" jamLengthInMetersSum="9952.54" meanHaltingDuration="10.43" maxHaltingDuration="26.00" haltingDurationSum="1700.00" meanIntervalHaltingDuration="10.43" maxIntervalHaltingDuration="26.00" intervalHaltingDurationSum="1700.00" startedHalts="163.00" meanVehicleNumber="2.37" maxVehicleNumber="7" />
   <interval begin="0.00" end="1251.00" id="DET+++northMiddle___intersectionN" sampledSeconds="3595.14" nVehEntered="63" nVehLeft="63" nVehSeen="63" meanSpeed="2.72" meanTimeLoss="45.83" meanOccupancy="9.35" maxOccupancy="23.39" meanMaxJamLengthInVehicles="1.73" meanMaxJamLengthInMeters="11.46" maxJamLengthInVehicles="7" maxJamLengthInMeters="51.07" jamLengthInVehiclesSum="2178" jamLengthInMetersSum="14420.75" meanHaltingDuration="11.22" maxHaltingDuration="55.00" haltingDurationSum="2391.00" meanIntervalHaltingDuration="11.22" maxIntervalHaltingDuration="55.00" intervalHaltingDurationSum="2391.00" startedHalts="214.00" meanVehicleNumber="2.92" maxVehicleNumber="8" />
   <interval begin="0.00" end="1251.00" id="DET+++northRight___intersectionNE" sampledSeconds="1540.57" nVehEntered="62" nVehLeft="62" nVehSeen="62" meanSpeed="6.24" meanTimeLoss="13.75" meanOccupancy="3.89" maxOccupancy="13.33" meanMaxJamLengthInVehicles="0.45" meanMaxJamLengthInMeters="2.48" maxJamLengthInVehicles="3" maxJamLengthInMeters="21.02" jamLengthInVehiclesSum="564" jamLengthInMetersSum="3107.61" meanHaltingDuration="8.91" maxHaltingDuration="33.00" haltingDurationSum="633.00" meanIntervalHaltingDuration="8.91" maxIntervalHaltingDuration="33.00" intervalHaltingDurationSum="633.00" startedHalts="73.00" meanVehicleNumber="1.28" maxVehicleNumber="5" />
   <interval begin="0.00" end="1251.00" id="DET+++southLeft___intersectionSW" sampledSeconds="2738.17" nVehEntered="57" nVehLeft="57" nVehSeen="57" meanSpeed="3.23" meanTimeLoss="36.69" meanOccupancy="7.09" maxOccupancy="26.67" meanMaxJamLengthInVehicles="1.24" meanMaxJamLengthInMeters="8.27" maxJamLengthInVehicles="8" maxJamLengthInMeters="58.37" jamLengthInVehiclesSum="1576" jamLengthInMetersSum="10449.66" meanHaltingDuration="11.48" maxHaltingDuration="38.00" haltingDurationSum="1722.00" meanIntervalHaltingDuration="11.48" maxIntervalHaltingDuration="38.00" intervalHaltingDurationSum="1722.00" startedHalts="152.00" meanVehicleNumber="2.23" maxVehicleNumber="8" />
   <interval begin="0.00" end="1251.00" id="DET+++southMiddle___intersectionS" sampledSeconds="2049.83" nVehEntered="62" nVehLeft="62" nVehSeen="62" meanSpeed="4.69" meanTimeLoss="21.82" meanOccupancy="5.26" maxOccupancy="16.67" meanMaxJamLengthInVehicles="0.75" meanMaxJamLengthInMeters="4.50" maxJamLengthInVehicles="4" maxJamLengthInMeters="28.62" jamLengthInVehiclesSum="932" jamLengthInMetersSum="5628.72" meanHaltingDuration="9.10" maxHaltingDuration="29.00" haltingDurationSum="1047.00" meanIntervalHaltingDuration="9.10" maxIntervalHaltingDuration="29.00" intervalHaltingDurationSum="1047.00" startedHalts="116.00" meanVehicleNumber="1.69" maxVehicleNumber="5" />
   <interval begin="0.00" end="1251.00" id="DET+++southRight___intersectionSE" sampledSeconds="2135.25" nVehEntered="56" nVehLeft="56" nVehSeen="56" meanSpeed="4.07" meanTimeLoss="26.55" meanOccupancy="5.49" maxOccupancy="23.33" meanMaxJamLengthInVehicles="0.85" meanMaxJamLengthInMeters="5.29" maxJamLengthInVehicles="5" maxJamLengthInMeters="36.02" jamLengthInVehiclesSum="1065" jamLengthInMetersSum="6645.27" meanHaltingDuration="10.05" maxHaltingDuration="39.00" haltingDurationSum="1176.00" meanIntervalHaltingDuration="10.05" maxIntervalHaltingDuration="39.00" intervalHaltingDurationSum="1176.00" startedHalts="121.00" meanVehicleNumber="1.75" maxVehicleNumber="7" />
   <interval begin="0.00" end="1251.00" id="DET+++westBottom___intersectionSW" sampledSeconds="1722.77" nVehEntered="48" nVehLeft="48" nVehSeen="48" meanSpeed="4.32" meanTimeLoss="24.68" meanOccupancy="4.42" maxOccupancy="22.63" meanMaxJamLengthInVehicles="0.66" meanMaxJamLengthInMeters="4.16" maxJamLengthInVehicles="5" maxJamLengthInMeters="36.79" jamLengthInVehiclesSum="825" jamLengthInMetersSum="5224.63" meanHaltingDuration="9.74" maxHaltingDuration="25.00" haltingDurationSum="916.00" meanIntervalHaltingDuration="9.74" maxIntervalHaltingDuration="25.00" intervalHaltingDurationSum="916.00" startedHalts="98.00" meanVehicleNumber="1.42" maxVehicleNumber="7" />
   <interval begin="0.00" end="1251.00" id="DET+++westMiddle___intersectionW" sampledSeconds="3089.99" nVehEntered="64" nVehLeft="64" nVehSeen="64" meanSpeed="3.21" meanTimeLoss="37.02" meanOccupancy="8.00" maxOccupancy="30.00" meanMaxJamLengthInVehicles="1.33" meanMaxJamLengthInMeters="9.05" maxJamLengthInVehicles="9" maxJamLengthInMeters="65.87" jamLengthInVehiclesSum="1714" jamLengthInMetersSum="11617.96" meanHaltingDuration="9.92" maxHaltingDuration="40.00" haltingDurationSum="1904.00" meanIntervalHaltingDuration="9.92" maxIntervalHaltingDuration="40.00" intervalHaltingDurationSum="1904.00" startedHalts="193.00" meanVehicleNumber="2.52" maxVehicleNumber="9" />
   <interval begin="0.00" end="1251.00" id="DET+++westTop___intersectionNW" sampledSeconds="2500.65" nVehEntered="58" nVehLeft="58" nVehSeen="58" meanSpeed="3.60" meanTimeLoss="31.94" meanOccupancy="6.46" maxOccupancy="22.78" meanMaxJamLengthInVehicles="1.11" meanMaxJamLengthInMeters="7.22" maxJamLengthInVehicles="6" maxJamLengthInMeters="43.32" jamLengthInVehiclesSum="1400" jamLengthInMetersSum="9095.32" meanHaltingDuration="11.61" maxHaltingDuration="69.00" haltingDurationSum="1532.00" meanIntervalHaltingDuration="11.61" maxIntervalHaltingDuration="69.00" intervalHaltingDurationSum="1532.00" startedHalts="133.00" meanVehicleNumber="2.05" maxVehicleNumber="7" />
</detector>
